# vtk DataFile Version 2.0
vtk output
ASCII
DATASET POLYDATA
POINTS 11 float
2 0 0
1.61803 1.17557 0
0.618034 1.90211 0
-0.618034 1.90211 0
-1.61803 1.17557 0
-2 2.44929e-16 0
-1.61803 -1.17557 0
-0.618034 -1.90211 0
0.618034 -1.90211 0
1.61803 -1.17557 0
0 0 10

LINES 20
2 0 1
2 1 2
2 2 3
2 3 4
2 4 5
2 5 6
2 6 7
2 7 8
2 8 9
2 9 0
2 0 10
2 1 10
2 2 10
2 3 10
2 4 10
2 5 10
2 6 10
2 7 10
2 8 10
2 9 10

POLYGONS 11 51
3 0 1 10
3 1 2 10
3 2 3 10
3 3 4 10
3 4 5 10
3 5 6 10
3 6 7 10
3 7 8 10
3 8 9 10
3 9 0 10
10 0 1 2 3 4 5 6 7 8 9

CELL_DATA 11
SCALARS cell_scalars int 1
LOOKUP_TABLE default
0
1
2
3
4
5
6
7
8
9
10
NORMALS cell_normals float
0 0 1
0 0 -1
0 1 0
0 -1 0
1 0 0
-1 0 0

POINT_DATA 11
SCALARS sample_scalars float 1
LOOKUP_TABLE my_table
0.0
1.0
2.0
3.0
4.0
5.0
6.0
7.0
8.0
9.0
10.0
LOOKUP_TABLE my_table 11
0.0 1.0 0.0 1.0
0.0 1.0 0.0 1.0
0.0 1.0 0.0 1.0
0.0 1.0 0.0 1.0
0.0 1.0 0.0 1.0
0.0 1.0 0.0 1.0
0.0 1.0 0.0 1.0
0.0 1.0 0.0 1.0
0.0 1.0 0.0 1.0
0.0 1.0 0.0 1.0
0.0 1.0 0.0 1.0
